<?xml version="1.0"?>
<VTKFile type="UnstructuredGrid"  version="0.1"  >
<UnstructuredGrid>
<Piece  NumberOfPoints="2608" NumberOfCells="5022">
<Points>
<DataArray  type="Float64"  NumberOfComponents="3"  format="ascii">0 0 0  640 0 0  0 320 0  640 320 0  160 80 0  480 80 0  160 240 0  480 240 0  170 80 0  180 80 0  190 80 0  200 80 0  210 80 0  220 80 0  230 80 0  240 80 0  250 80 0  260 80 0  270 80 0  280 80 0  290 80 0  300 80 0  310 80 0  320 80 0  330 80 0  340 80 0  350 80 0  360 80 0  370 80 0  380 80 0  390 80 0  400 80 0  410 80 0  420 80 0  430 80 0  440 80 0  450 80 0  460 80 0  470 80 0  170 240 0  180 240 0  190 240 0  200 240 0  210 240 0  220 240 0  230 240 0  240 240 0  250 240 0  260 240 0  270 240 0  280 240 0  290 240 0  300 240 0  310 240 0  320 240 0  330 240 0  340 240 0  350 240 0  360 240 0  370 240 0  380 240 0  390 240 0  400 240 0  410 240 0  420 240 0  430 240 0  440 240 0  450 240 0  460 240 0  470 240 0  160 90 0  160 100 0  160 110 0  160 120 0  160 130 0  160 140 0  160 150 0  160 160 0  160 170 0  160 180 0  160 190 0  160 200 0  160 210 0  160 220 0  160 230 0  480 90 0  480 100 0  480 110 0  480 120 0  480 130 0  480 140 0  480 150 0  480 160 0  480 170 0  480 180 0  480 190 0  480 200 0  480 210 0  480 220 0  480 230 0  9.999999999992724 0 0  19.99999999998503 0 0  29.99999999997317 0 0  39.99999999996479 0 0  49.99999999995779 0 0  59.99999999995079 0 0  69.99999999994378 0 0  79.99999999993402 0 0  89.99999999990757 0 0  99.99999999987837 0 0  109.9999999998492 0 0  119.99999999982 0 0  129.9999999997908 0 0  139.9999999997616 0 0  149.9999999997324 0 0  159.9999999997032 0 0  169.9999999996739 0 0  179.9999999996447 0 0  189.9999999996155 0 0  199.9999999995863 0 0  209.9999999995571 0 0  219.9999999995279 0 0  229.9999999994987 0 0  239.9999999994695 0 0  249.9999999994403 0 0  259.9999999994222 0 0  269.9999999994374 0 0  279.9999999994527 0 0  289.9999999994678 0 0  299.9999999994831 0 0  309.9999999994982 0 0  319.9999999995135 0 0  329.9999999995287 0 0  339.9999999995438 0 0  349.999999999559 0 0  359.9999999995742 0 0  369.9999999995895 0 0  379.9999999996047 0 0  389.9999999996198 0 0  399.9999999996351 0 0  409.9999999996503 0 0  419.9999999996655 0 0  429.9999999996807 0 0  439.9999999996959 0 0  449.9999999997111 0 0  459.9999999997263 0 0  469.9999999997415 0 0  479.9999999997567 0 0  489.9999999997719 0 0  499.9999999997871 0 0  509.9999999998023 0 0  519.9999999998175 0 0  529.9999999998328 0 0  539.9999999998479 0 0  549.9999999998631 0 0  559.9999999998784 0 0  569.9999999998936 0 0  579.9999999999088 0 0  589.9999999999239 0 0  599.9999999999392 0 0  609.9999999999544 0 0  619.9999999999695 0 0  629.9999999999848 0 0  640 9.999999999992516 0  640 19.99999999998239 0  640 29.99999999997539 0  640 39.99999999996701 0  640 49.99999999993918 0  640 59.99999999990998 0  640 69.99999999988079 0  640 79.99999999985158 0  640 89.99999999982236 0  640 99.99999999979316 0  640 109.999999999764 0  640 119.9999999997348 0  640 129.9999999997111 0  640 139.9999999997263 0  640 149.9999999997415 0  640 159.9999999997567 0  640 169.9999999997719 0  640 179.9999999997871 0  640 189.9999999998023 0  640 199.9999999998175 0  640 209.9999999998327 0  640 219.9999999998479 0  640 229.9999999998631 0  640 239.9999999998784 0  640 249.9999999998936 0  640 259.9999999999088 0  640 269.9999999999239 0  640 279.9999999999392 0  640 289.9999999999544 0  640 299.9999999999696 0  640 309.9999999999848 0  630 320 0  620 320 0  610 320 0  600 320 0  590 320 0  580 320 0  570 320 0  560 320 0  550 320 0  540 320 0  530 320 0  520 320 0  510 320 0  500 320 0  490 320 0  480 320 0  470 320 0  460 320 0  450 320 0  440 320 0  430 320 0  420 320 0  410 320 0  400 320 0  390 320 0  380 320 0  370 320 0  360 320 0  350 320 0  340 320 0  330 320 0  320 320 0  310 320 0  300 320 0  290 320 0  280 320 0  270 320 0  260 320 0  250 320 0  240 320 0  230 320 0  220 320 0  210 320 0  200 320 0  190 320 0  180 320 0  170 320 0  160 320 0  150 320 0  140 320 0  130 320 0  120 320 0  110 320 0  100 320 0  90 320 0  80 320 0  70 320 0  60 320 0  50 320 0  40 320 0  30 320 0  20 320 0  10 320 0  0 310 0  0 300 0  0 290 0  0 280 0  0 270 0  0 260 0  0 250 0  0 240 0  0 230 0  0 220 0  0 210 0  0 200 0  0 190 0  0 180 0  0 170 0  0 160 0  0 150 0  0 140 0  0 130 0  0 120 0  0 110 0  0 100 0  0 90 0  0 80 0  0 70 0  0 60 0  0 50 0  0 40 0  0 30 0  0 20 0  0 10 0  170 90 0  170 100 0  170 110 0  170 120 0  170 130 0  170 140 0  170 150 0  170 160 0  170 170 0  170 180 0  170 190 0  170 200 0  170 210 0  170 220 0  170 230 0  180 90 0  180 100 0  180 110 0  180 120 0  180 130 0  180 140 0  180 150 0  180 160 0  180 170 0  180 180 0  180 190 0  180 200 0  180 210 0  180 220 0  180 230 0  190 90 0  190 100 0  190 110 0  190 120 0  190 130 0  190 140 0  190 150 0  190 160 0  190 170 0  190 180 0  190 190 0  190 200 0  190 210 0  190 220 0  190 230 0  200 90 0  200 100 0  200 110 0  200 120 0  200 130 0  200 140 0  200 150 0  200 160 0  200 170 0  200 180 0  200 190 0  200 200 0  200 210 0  200 220 0  200 230 0  210 90 0  210 100 0  210 110 0  210 120 0  210 130 0  210 140 0  210 150 0  210 160 0  210 170 0  210 180 0  210 190 0  210 200 0  210 210 0  210 220 0  210 230 0  220 90 0  220 100 0  220 110 0  220 120 0  220 130 0  220 140 0  220 150 0  220 160 0  220 170 0  220 180 0  220 190 0  220 200 0  220 210 0  220 220 0  220 230 0  230 90 0  230 100 0  230 110 0  230 120 0  230 130 0  230 140 0  230 150 0  230 160 0  230 170 0  230 180 0  230 190 0  230 200 0  230 210 0  230 220 0  230 230 0  240 90 0  240 100 0  240 110 0  240 120 0  240 130 0  240 140 0  240 150 0  240 160 0  240 170 0  240 180 0  240 190 0  240 200 0  240 210 0  240 220 0  240 230 0  250 90 0  250 100 0  250 110 0  250 120 0  250 130 0  250 140 0  250 150 0  250 160 0  250 170 0  250 180 0  250 190 0  250 200 0  250 210 0  250 220 0  250 230 0  260 90 0  260 100 0  260 110 0  260 120 0  260 130 0  260 140 0  260 150 0  260 160 0  260 170 0  260 180 0  260 190 0  260 200 0  260 210 0  260 220 0  260 230 0  270 90 0  270 100 0  270 110 0  270 120 0  270 130 0  270 140 0  270 150 0  270 160 0  270 170 0  270 180 0  270 190 0  270 200 0  270 210 0  270 220 0  270 230 0  280 90 0  280 100 0  280 110 0  280 120 0  280 130 0  280 140 0  280 150 0  280 160 0  280 170 0  280 180 0  280 190 0  280 200 0  280 210 0  280 220 0  280 230 0  290 90 0  290 100 0  290 110 0  290 120 0  290 130 0  290 140 0  290 150 0  290 160 0  290 170 0  290 180 0  290 190 0  290 200 0  290 210 0  290 220 0  290 230 0  300 90 0  300 100 0  300 110 0  300 120 0  300 130 0  300 140 0  300 150 0  300 160 0  300 170 0  300 180 0  300 190 0  300 200 0  300 210 0  300 220 0  300 230 0  310 90 0  310 100 0  310 110 0  310 120 0  310 130 0  310 140 0  310 150 0  310 160 0  310 170 0  310 180 0  310 190 0  310 200 0  310 210 0  310 220 0  310 230 0  320 90 0  320 100 0  320 110 0  320 120 0  320 130 0  320 140 0  320 150 0  320 160 0  320 170 0  320 180 0  320 190 0  320 200 0  320 210 0  320 220 0  320 230 0  330 90 0  330 100 0  330 110 0  330 120 0  330 130 0  330 140 0  330 150 0  330 160 0  330 170 0  330 180 0  330 190 0  330 200 0  330 210 0  330 220 0  330 230 0  340 90 0  340 100 0  340 110 0  340 120 0  340 130 0  340 140 0  340 150 0  340 160 0  340 170 0  340 180 0  340 190 0  340 200 0  340 210 0  340 220 0  340 230 0  350 90 0  350 100 0  350 110 0  350 120 0  350 130 0  350 140 0  350 150 0  350 160 0  350 170 0  350 180 0  350 190 0  350 200 0  350 210 0  350 220 0  350 230 0  360 90 0  360 100 0  360 110 0  360 120 0  360 130 0  360 140 0  360 150 0  360 160 0  360 170 0  360 180 0  360 190 0  360 200 0  360 210 0  360 220 0  360 230 0  370 90 0  370 100 0  370 110 0  370 120 0  370 130 0  370 140 0  370 150 0  370 160 0  370 170 0  370 180 0  370 190 0  370 200 0  370 210 0  370 220 0  370 230 0  380 90 0  380 100 0  380 110 0  380 120 0  380 130 0  380 140 0  380 150 0  380 160 0  380 170 0  380 180 0  380 190 0  380 200 0  380 210 0  380 220 0  380 230 0  390 90 0  390 100 0  390 110 0  390 120 0  390 130 0  390 140 0  390 150 0  390 160 0  390 170 0  390 180 0  390 190 0  390 200 0  390 210 0  390 220 0  390 230 0  400 90 0  400 100 0  400 110 0  400 120 0  400 130 0  400 140 0  400 150 0  400 160 0  400 170 0  400 180 0  400 190 0  400 200 0  400 210 0  400 220 0  400 230 0  410 90 0  410 100 0  410 110 0  410 120 0  410 130 0  410 140 0  410 150 0  410 160 0  410 170 0  410 180 0  410 190 0  410 200 0  410 210 0  410 220 0  410 230 0  420 90 0  420 100 0  420 110 0  420 120 0  420 130 0  420 140 0  420 150 0  420 160 0  420 170 0  420 180 0  420 190 0  420 200 0  420 210 0  420 220 0  420 230 0  430 90 0  430 100 0  430 110 0  430 120 0  430 130 0  430 140 0  430 150 0  430 160 0  430 170 0  430 180 0  430 190 0  430 200 0  430 210 0  430 220 0  430 230 0  440 90 0  440 100 0  440 110 0  440 120 0  440 130 0  440 140 0  440 150 0  440 160 0  440 170 0  440 180 0  440 190 0  440 200 0  440 210 0  440 220 0  440 230 0  450 90 0  450 100 0  450 110 0  450 120 0  450 130 0  450 140 0  450 150 0  450 160 0  450 170 0  450 180 0  450 190 0  450 200 0  450 210 0  450 220 0  450 230 0  460 90 0  460 100 0  460 110 0  460 120 0  460 130 0  460 140 0  460 150 0  460 160 0  460 170 0  460 180 0  460 190 0  460 200 0  460 210 0  460 220 0  460 230 0  470 90 0  470 100 0  470 110 0  470 120 0  470 130 0  470 140 0  470 150 0  470 160 0  470 170 0  470 180 0  470 190 0  470 200 0  470 210 0  470 220 0  470 230 0  559.3932090715297 84.84339582661079 0  79.11917146462382 84.15250666615333 0  80.07958573542335 234.9083839185337 0  559.163669558402 232.7146572433294 0  555.1562500000764 159.9999999999182 0  74.05131889360086 161.3677159806629 0  117.9407415936749 50.56918551237125 0  117.0116963825488 268.1477462207791 0  522.3329753141392 270.2180117756071 0  522.3268890647064 49.78325872682323 0  590.3247376377162 124.6148853993604 0  109.7724811843544 122.4869805513807 0
[...]
<PointData  Scalars="turbine_friction"> 
<DataArray  type="Float64"  Name="turbine_friction"  format="ascii">0.0000000000000000e+00  0.0000000000000000e+00  0.0000000000000000e+00  0.0000000000000000e+00  0.0000000000000000e+00  0.0000000000000000e+00  0.0000000000000000e+00  0.0000000000000000e+00  0.0000000000000000e+00  0.0000000000000000e+00  0.0000000000000000e+00  0.0000000000000000e+00  0.0000000000000000e+00  0.0000000000000000e+00  0.0000000000000000e+00  0.0000000000000000e+00  0.0000000000000000e+00  0.0000000000000000e+00  0.0000000000000000e+00  0.0000000000000000e+00  0.0000000000000000e+00  0.0000000000000000e+00  0.0000000000000000e+00  0.0000000000000000e+00  0.0000000000000000e+00  0.0000000000000000e+00  0.0000000000000000e+00  0.0000000000000000e+00  0.0000000000000000e+00  0.0000000000000000e+00  0.0000000000000000e+00  0.0000000000000000e+00  0.0000000000000000e+00  0.0000000000000000e+00  0.0000000000000000e+00  0.0000000000000000e+00  0.0000000000000000e+00  0.0000000000000000e+00  0.0000000000000000e+00  0.0000000000000000e+00  0.0000000000000000e+00  0.0000000000000000e+00  0.0000000000000000e+00  0.0000000000000000e+00  0.0000000000000000e+00  0.0000000000000000e+00  0.0000000000000000e+00  0.0000000000000000e+00  0.0000000000000000e+00  0.0000000000000000e+00  0.0000000000000000e+00  0.0000000000000000e+00  0.0000000000000000e+00  0.0000000000000000e+00  0.0000000000000000e+00  0.0000000000000000e+00  0.0000000000000000e+00  0.0000000000000000e+00  0.0000000000000000e+00  0.0000000000000000e+00  0.0000000000000000e+00  0.0000000000000000e+00  0.0000000000000000e+00  0.0000000000000000e+00  0.0000000000000000e+00  0.0000000000000000e+00  0.0000000000000000e+00  0.0000000000000000e+00  0.0000000000000000e+00  0.0000000000000000e+00  0.0000000000000000e+00  0.0000000000000000e+00  0.0000000000000000e+00  0.0000000000000000e+00  0.0000000000000000e+00  0.0000000000000000e+00  0.0000000000000000e+00  0.0000000000000000e+00  0.0000000000000000e+00  0.0000000000000000e+00  0.0000000000000000e+00  0.0000000000000000e+00  0.0000000000000000e+00  0.0000000000000000e+00  0.0000000000000000e+00  0.0000000000000000e+00  0.0000000000000000e+00  0.0000000000000000e+00  0.0000000000000000e+00  0.0000000000000000e+00  0.0000000000000000e+00  0.0000000000000000e+00  0.0000000000000000e+00  0.0000000000000000e+00  0.0000000000000000e+00  0.0000000000000000e+00  0.0000000000000000e+00  0.0000000000000000e+00  0.0000000000000000e+00  0.0000000000000000e+00  0.0000000000000000e+00  0.0000000000000000e+00  0.0000000000000000e+00  0.0000000000000000e+00  0.0000000000000000e+00  0.0000000000000000e+00  0.0000000000000000e+00  0.0000000000000000e+00  0.0000000000000000e+00  0.0000000000000000e+00  0.0000000000000000e+00  0.0000000000000000e+00  0.0000000000000000e+00  0.0000000000000000e+00  0.0000000000000000e+00  0.0000000000000000e+00  0.0000000000000000e+00  0.0000000000000000e+00  0.0000000000000000e+00  0.0000000000000000e+00  0.0000000000000000e+00  0.0000000000000000e+00  0.0000000000000000e+00  0.0000000000000000e+00  0.0000000000000000e+00  0.0000000000000000e+00  0.0000000000000000e+00  0.0000000000000000e+00  0.0000000000000000e+00  0.0000000000000000e+00  0.0000000000000000e+00  0.0000000000000000e+00  0.0000000000000000e+00  0.0000000000000000e+00  0.0000000000000000e+00  0.0000000000000000e+00  0.0000000000000000e+00  0.0000000000000000e+00  0.0000000000000000e+00  0.0000000000000000e+00  0.0000000000000000e+00  0.0000000000000000e+00  0.0000000000000000e+00  0.0000000000000000e+00  0.0000000000000000e+00  0.0000000000000000e+00  0.0000000000000000e+00  0.0000000000000000e+00  0.0000000000000000e+00  0.0000000000000000e+00  0.0000000000000000e+00  0.0000000000000000e+00  0.0000000000000000e+00  0.0000000000000000e+00  0.0000000000000000e+00  0.0000000000000000e+00  0.0000000000000000e+00  0.0000000000000000e+00  0.0000000000000000e+00  0.0000000000000000e+00  0.0000000000000000e+00  0.0000000000000000e+00  0.0000000000000000e+00  0.0000000000000000e+00  0.0000000000000000e+00  0.0000000000000000e+00  0.0000000000000000e+00  0.0000000000000000e+00  0.0000000000000000e+00  0.0000000000000000e+00  0.0000000000000000e+00  0.0000000000000000e+00  0.0000000000000000e+00  0.0000000000000000e+00  0.0000000000000000e+00  0.0000000000000000e+00  0.0000000000000000e+00  0.0000000000000000e+00  0.0000000000000000e+00  0.0000000000000000e+00  0.0000000000000000e+00  0.0000000000000000e+00  0.0000000000000000e+00  0.0000000000000000e+00  0.0000000000000000e+00  0.0000000000000000e+00  0.0000000000000000e+00  0.0000000000000000e+00  0.0000000000000000e+00  0.0000000000000000e+00  0.0000000000000000e+00  0.0000000000000000e+00  0.0000000000000000e+00  0.0000000000000000e+00  0.0000000000000000e+00  0.0000000000000000e+00  0.0000000000000000e+00  0.0000000000000000e+00  0.0000000000000000e+00  0.0000000000000000e+00  0.0000000000000000e+00  0.0000000000000000e+00  0.0000000000000000e+00  0.0000000000000000e+00  0.0000000000000000e+00  0.0000000000000000e+00  0.0000000000000000e+00  0.0000000000000000e+00  0.0000000000000000e+00  0.0000000000000000e+00  0.0000000000000000e+00  0.0000000000000000e+00  0.0000000000000000e+00  0.0000000000000000e+00  0.0000000000000000e+00  0.0000000000000000e+00  0.0000000000000000e+00  0.0000000000000000e+00  0.0000000000000000e+00  0.0000000000000000e+00  0.0000000000000000e+00  0.0000000000000000e+00  0.0000000000000000e+00  0.0000000000000000e+00  0.0000000000000000e+00  0.0000000000000000e+00  0.0000000000000000e+00  0.0000000000000000e+00  0.0000000000000000e+00  0.0000000000000000e+00  0.0000000000000000e+00  0.0000000000000000e+00  0.0000000000000000e+00  0.0000000000000000e+00  0.0000000000000000e+00  0.0000000000000000e+00  0.0000000000000000e+00  0.0000000000000000e+00  0.0000000000000000e+00  0.0000000000000000e+00  0.0000000000000000e+00  0.0000000000000000e+00  0.0000000000000000e+00  0.0000000000000000e+00  0.0000000000000000e+00  0.0000000000000000e+00  0.0000000000000000e+00  0.0000000000000000e+00  0.0000000000000000e+00  0.0000000000000000e+00  0.0000000000000000e+00  0.0000000000000000e+00  0.0000000000000000e+00  0.0000000000000000e+00  0.0000000000000000e+00  0.0000000000000000e+00  0.0000000000000000e+00  0.0000000000000000e+00  0.0000000000000000e+00  0.0000000000000000e+00  0.0000000000000000e+00  0.0000000000000000e+00  0.0000000000000000e+00  0.0000000000000000e+00  0.0000000000000000e+00  0.0000000000000000e+00  0.0000000000000000e+00  0.0000000000000000e+00  0.0000000000000000e+00  0.0000000000000000e+00  0.0000000000000000e+00  0.0000000000000000e+00  0.0000000000000000e+00  0.0000000000000000e+00  0.0000000000000000e+00  0.0000000000000000e+00  0.0000000000000000e+00  0.0000000000000000e+00  0.0000000000000000e+00  0.0000000000000000e+00  0.0000000000000000e+00  0.0000000000000000e+00  0.0000000000000000e+00  0.0000000000000000e+00  0.0000000000000000e+00  0.0000000000000000e+00  0.0000000000000000e+00  0.0000000000000000e+00  0.0000000000000000e+00  0.0000000000000000e+00  0.0000000000000000e+00  0.0000000000000000e+00  0.0000000000000000e+00  0.0000000000000000e+00  0.0000000000000000e+00  0.0000000000000000e+00  0.0000000000000000e+00  0.0000000000000000e+00  0.0000000000000000e+00  0.0000000000000000e+00  0.0000000000000000e+00  0.0000000000000000e+00  0.0000000000000000e+00  0.0000000000000000e+00  0.0000000000000000e+00  0.0000000000000000e+00  0.0000000000000000e+00  0.0000000000000000e+00  0.0000000000000000e+00  0.0000000000000000e+00  0.0000000000000000e+00  0.0000000000000000e+00  0.0000000000000000e+00  0.0000000000000000e+00  0.0000000000000000e+00  0.0000000000000000e+00  0.0000000000000000e+00  0.0000000000000000e+00  0.0000000000000000e+00  0.0000000000000000e+00  0.0000000000000000e+00  0.0000000000000000e+00  0.0000000000000000e+00  0.0000000000000000e+00  0.0000000000000000e+00  0.0000000000000000e+00  0.0000000000000000e+00  0.0000000000000000e+00  0.0000000000000000e+00  0.0000000000000000e+00  0.0000000000000000e+00  0.0000000000000000e+00  0.0000000000000000e+00  0.0000000000000000e+00  0.0000000000000000e+00  0.0000000000000000e+00  0.0000000000000000e+00  0.0000000000000000e+00  0.0000000000000000e+00  0.0000000000000000e+00  0.0000000000000000e+00  0.0000000000000000e+00  0.0000000000000000e+00  0.0000000000000000e+00  0.0000000000000000e+00  0.0000000000000000e+00  0.0000000000000000e+00  0.0000000000000000e+00  0.0000000000000000e+00  0.0000000000000000e+00  0.0000000000000000e+00  0.0000000000000000e+00  0.0000000000000000e+00  0.0000000000000000e+00  0.0000000000000000e+00  0.0000000000000000e+00  0.0000000000000000e+00  0.0000000000000000e+00  0.0000000000000000e+00  0.0000000000000000e+00  0.0000000000000000e+00  0.0000000000000000e+00  0.0000000000000000e+00  0.0000000000000000e+00  0.0000000000000000e+00  0.0000000000000000e+00  0.0000000000000000e+00  0.0000000000000000e+00  0.0000000000000000e+00  0.0000000000000000e+00  0.0000000000000000e+00  0.0000000000000000e+00  0.0000000000000000e+00  0.0000000000000000e+00  0.0000000000000000e+00  0.0000000000000000e+00  0.0000000000000000e+00  0.0000000000000000e+00  0.0000000000000000e+00  0.0000000000000000e+00  0.0000000000000000e+00  0.0000000000000000e+00  0.0000000000000000e+00  0.0000000000000000e+00  0.0000000000000000e+00  0.0000000000000000e+00  0.0000000000000000e+00  0.0000000000000000e+00  0.0000000000000000e+00  0.0000000000000000e+00  0.0000000000000000e+00  0.0000000000000000e+00  0.0000000000000000e+00  0.0000000000000000e+00  0.0000000000000000e+00  0.0000000000000000e+00  0.0000000000000000e+00  0.0000000000000000e+00  0.0000000000000000e+00  0.0000000000000000e+00  0.0000000000000000e+00  0.0000000000000000e+00  0.0000000000000000e+00  0.0000000000000000e+00  0.0000000000000000e+00  0.0000000000000000e+00  0.0000000000000000e+00  0.0000000000000000e+00  0.0000000000000000e+00  0.0000000000000000e+00  0.0000000000000000e+00  0.0000000000000000e+00  0.0000000000000000e+00  0.0000000000000000e+00  0.0000000000000000e+00  0.0000000000000000e+00  0.0000000000000000e+00  0.0000000000000000e+00  0.0000000000000000e+00  0.0000000000000000e+00  0.0000000000000000e+00  0.0000000000000000e+00  0.0000000000000000e+00  0.0000000000000000e+00  0.0000000000000000e+00  0.0000000000000000e+00  0.0000000000000000e+00  0.0000000000000000e+00  0.0000000000000000e+00  0.0000000000000000e+00  0.0000000000000000e+00  0.0000000000000000e+00  0.0000000000000000e+00  0.0000000000000000e+00  0.0000000000000000e+00  0.0000000000000000e+00  0.0000000000000000e+00  0.0000000000000000e+00  0.0000000000000000e+00  0.0000000000000000e+00  0.0000000000000000e+00  0.0000000000000000e+00  0.0000000000000000e+00  0.0000000000000000e+00  0.0000000000000000e+00  0.0000000000000000e+00  0.0000000000000000e+00  0.0000000000000000e+00  0.0000000000000000e+00  0.0000000000000000e+00  0.0000000000000000e+00  0.0000000000000000e+00  0.0000000000000000e+00  0.0000000000000000e+00  0.0000000000000000e+00  0.0000000000000000e+00  0.0000000000000000e+00  0.0000000000000000e+00  0.0000000000000000e+00  0.0000000000000000e+00  0.0000000000000000e+00  0.0000000000000000e+00  0.0000000000000000e+00  0.0000000000000000e+00  0.0000000000000000e+00  0.0000000000000000e+00  0.0000000000000000e+00  0.0000000000000000e+00  0.0000000000000000e+00  0.0000000000000000e+00  0.0000000000000000e+00  0.0000000000000000e+00  0.0000000000000000e+00  0.0000000000000000e+00  0.0000000000000000e+00  0.0000000000000000e+00  0.0000000000000000e+00  0.0000000000000000e+00  0.0000000000000000e+00  0.0000000000000000e+00  0.0000000000000000e+00  0.0000000000000000e+00  0.0000000000000000e+00  0.0000000000000000e+00  0.0000000000000000e+00  0.0000000000000000e+00  0.0000000000000000e+00  0.0000000000000000e+00  0.0000000000000000e+00  0.0000000000000000e+00  0.0000000000000000e+00  0.0000000000000000e+00  0.0000000000000000e+00  0.0000000000000000e+00  0.0000000000000000e+00  0.0000000000000000e+00  0.0000000000000000e+00  0.0000000000000000e+00  0.0000000000000000e+00  0.0000000000000000e+00  0.0000000000000000e+00  0.0000000000000000e+00  0.0000000000000000e+00  0.0000000000000000e+00  4.0000000000000000e+02  0.0000000000000000e+00  0.0000000000000000e+00  0.0000000000000000e+00  0.0000000000000000e+00  0.0000000000000000e+00  0.0000000000000000e+00  0.0000000000000000e+00  0.0000000000000000e+00  0.0000000000000000e+00  0.0000000000000000e+00  0.0000000000000000e+00  0.0000000000000000e+00  0.0000000000000000e+00  0.0000000000000000e+00  0.0000000000000000e+00  0.0000000000000000e+00  0.0000000000000000e+00  0.0000000000000000e+00  0.0000000000000000e+00  0.0000000000000000e+00  0.0000000000000000e+00  0.0000000000000000e+00  0.0000000000000000e+00  0.0000000000000000e+00  0.0000000000000000e+00  0.0000000000000000e+00  0.0000000000000000e+00  0.0000000000000000e+00  0.0000000000000000e+00  0.0000000000000000e+00  0.0000000000000000e+00  0.0000000000000000e+00  0.0000000000000000e+00  0.0000000000000000e+00  0.0000000000000000e+00  0.0000000000000000e+00  0.0000000000000000e+00  0.0000000000000000e+00  0.0000000000000000e+00  0.0000000000000000e+00  0.0000000000000000e+00  0.0000000000000000e+00  0.0000000000000000e+00  0.0000000000000000e+00  0.0000000000000000e+00  0.0000000000000000e+00  0.0000000000000000e+00  0.0000000000000000e+00  0.0000000000000000e+00  0.0000000000000000e+00  0.0000000000000000e+00  0.0000000000000000e+00  0.0000000000000000e+00  0.0000000000000000e+00  0.0000000000000000e+00  0.0000000000000000e+00  0.0000000000000000e+00  0.0000000000000000e+00  0.0000000000000000e+00  0.0000000000000000e+00  0.0000000000000000e+00  0.0000000000000000e+00  0.0000000000000000e+00  0.0000000000000000e+00  0.0000000000000000e+00  0.0000000000000000e+00  0.0000000000000000e+00  0.0000000000000000e+00  0.0000000000000000e+00  0.0000000000000000e+00  0.0000000000000000e+00  0.0000000000000000e+00  0.0000000000000000e+00  0.0000000000000000e+00  0.0000000000000000e+00  0.0000000000000000e+00  0.0000000000000000e+00  0.0000000000000000e+00  0.0000000000000000e+00  0.0000000000000000e+00  0.0000000000000000e+00  0.0000000000000000e+00  0.0000000000000000e+00  0.0000000000000000e+00  0.0000000000000000e+00  0.0000000000000000e+00  0.0000000000000000e+00  0.0000000000000000e+00  0.0000000000000000e+00  0.0000000000000000e+00  0.0000000000000000e+00  0.0000000000000000e+00  0.0000000000000000e+00  0.0000000000000000e+00  0.0000000000000000e+00  0.0000000000000000e+00  0.0000000000000000e+00  0.0000000000000000e+00  0.0000000000000000e+00  0.0000000000000000e+00  0.0000000000000000e+00  0.0000000000000000e+00  0.0000000000000000e+00  0.0000000000000000e+00  0.0000000000000000e+00  0.0000000000000000e+00  0.0000000000000000e+00  0.0000000000000000e+00  0.0000000000000000e+00  0.0000000000000000e+00  0.0000000000000000e+00  0.0000000000000000e+00  0.0000000000000000e+00  0.0000000000000000e+00  0.0000000000000000e+00  0.0000000000000000e+00  0.0000000000000000e+00  0.0000000000000000e+00  0.0000000000000000e+00  0.0000000000000000e+00  0.0000000000000000e+00  0.0000000000000000e+00  0.0000000000000000e+00  0.0000000000000000e+00  0.0000000000000000e+00  0.0000000000000000e+00  0.0000000000000000e+00  0.0000000000000000e+00  0.0000000000000000e+00  0.0000000000000000e+00  0.0000000000000000e+00  0.0000000000000000e+00  0.0000000000000000e+00  0.0000000000000000e+00  0.0000000000000000e+00  0.0000000000000000e+00  0.0000000000000000e+00  0.0000000000000000e+00  0.0000000000000000e+00  0.0000000000000000e+00  0.0000000000000000e+00  0.0000000000000000e+00  0.0000000000000000e+00  0.0000000000000000e+00  0.0000000000000000e+00  0.0000000000000000e+00  0.0000000000000000e+00  0.0000000000000000e+00  0.0000000000000000e+00  0.0000000000000000e+00  0.0000000000000000e+00  0.0000000000000000e+00  0.0000000000000000e+00  0.0000000000000000e+00  0.0000000000000000e+00  0.0000000000000000e+00  0.0000000000000000e+00  0.0000000000000000e+00  0.0000000000000000e+00  0.0000000000000000e+00  0.0000000000000000e+00  0.0000000000000000e+00  0.0000000000000000e+00  0.0000000000000000e+00  0.0000000000000000e+00  0.0000000000000000e+00  0.0000000000000000e+00  0.0000000000000000e+00  0.0000000000000000e+00  0.0000000000000000e+00  0.0000000000000000e+00  0.0000000000000000e+00  0.0000000000000000e+00  0.0000000000000000e+00  0.0000000000000000e+00  0.0000000000000000e+00  0.0000000000000000e+00  0.0000000000000000e+00  0.0000000000000000e+00  0.0000000000000000e+00  0.0000000000000000e+00  0.0000000000000000e+00  0.0000000000000000e+00  0.0000000000000000e+00  0.0000000000000000e+00  0.0000000000000000e+00  0.0000000000000000e+00  0.0000000000000000e+00  0.0000000000000000e+00  0.0000000000000000e+00  0.0000000000000000e+00  0.0000000000000000e+00  0.0000000000000000e+00  0.0000000000000000e+00  0.0000000000000000e+00  0.0000000000000000e+00  0.0000000000000000e+00  0.0000000000000000e+00  0.0000000000000000e+00  0.0000000000000000e+00  0.0000000000000000e+00  0.0000000000000000e+00  0.0000000000000000e+00  0.0000000000000000e+00  0.0000000000000000e+00  0.0000000000000000e+00  0.0000000000000000e+00  0.0000000000000000e+00  0.0000000000000000e+00  0.0000000000000000e+00  0.0000000000000000e+00  0.0000000000000000e+00  0.0000000000000000e+00  0.0000000000000000e+00  0.0000000000000000e+00  0.0000000000000000e+00  0.0000000000000000e+00  0.0000000000000000e+00  0.0000000000000000e+00  0.0000000000000000e+00  0.0000000000000000e+00  0.0000000000000000e+00  0.0000000000000000e+00  0.0000000000000000e+00  0.0000000000000000e+00  0.0000000000000000e+00  0.0000000000000000e+00  0.0000000000000000e+00  0.0000000000000000e+00  0.0000000000000000e+00  0.0000000000000000e+00  0.0000000000000000e+00  0.0000000000000000e+00  0.0000000000000000e+00  0.0000000000000000e+00  0.0000000000000000e+00  0.0000000000000000e+00  0.0000000000000000e+00  0.0000000000000000e+00  0.0000000000000000e+00  0.0000000000000000e+00  0.0000000000000000e+00  0.0000000000000000e+00  0.0000000000000000e+00  0.0000000000000000e+00  0.0000000000000000e+00  0.0000000000000000e+00  0.0000000000000000e+00  0.0000000000000000e+00  0.0000000000000000e+00  0.0000000000000000e+00  0.0000000000000000e+00  0.0000000000000000e+00  0.0000000000000000e+00  0.0000000000000000e+00  0.0000000000000000e+00  0.0000000000000000e+00  0.0000000000000000e+00  0.0000000000000000e+00  0.0000000000000000e+00  0.0000000000000000e+00  0.0000000000000000e+00  0.0000000000000000e+00  0.0000000000000000e+00  0.0000000000000000e+00  0.0000000000000000e+00  0.0000000000000000e+00  0.0000000000000000e+00  0.0000000000000000e+00  0.0000000000000000e+00  0.0000000000000000e+00  0.0000000000000000e+00  0.0000000000000000e+00  0.0000000000000000e+00  0.0000000000000000e+00  0.0000000000000000e+00  0.0000000000000000e+00  0.0000000000000000e+00  0.0000000000000000e+00  0.0000000000000000e+00  0.0000000000000000e+00  0.0000000000000000e+00  0.0000000000000000e+00  0.0000000000000000e+00  0.0000000000000000e+00  0.0000000000000000e+00  0.0000000000000000e+00  0.0000000000000000e+00  0.0000000000000000e+00  0.0000000000000000e+00  0.0000000000000000e+00  0.0000000000000000e+00  0.0000000000000000e+00  0.0000000000000000e+00  0.0000000000000000e+00  0.0000000000000000e+00  0.0000000000000000e+00  0.0000000000000000e+00  0.0000000000000000e+00  0.0000000000000000e+00  0.0000000000000000e+00  0.0000000000000000e+00  0.0000000000000000e+00  0.0000000000000000e+00  0.0000000000000000e+00  0.0000000000000000e+00  0.0000000000000000e+00  0.0000000000000000e+00  0.0000000000000000e+00  0.0000000000000000e+00  0.0000000000000000e+00  0.0000000000000000e+00  0.0000000000000000e+00  0.0000000000000000e+00  0.0000000000000000e+00  0.0000000000000000e+00  0.0000000000000000e+00  0.0000000000000000e+00  0.0000000000000000e+00  0.0000000000000000e+00  0.0000000000000000e+00  0.0000000000000000e+00  0.0000000000000000e+00  0.0000000000000000e